PSF

       5 !NTITLE
 REMARKS original generated structure x-plor psf file
 REMARKS topology toppar_hydronium.str 
 REMARKS topology C:/Program 
 REMARKS segment A { first NONE; last NONE; auto none  }
 REMARKS segment WT1 { first NONE; last NONE; auto none  }

      64 !NATOM
       1 A    1    H3O  OH2  OW    -0.556900       15.9994           0
       2 A    1    H3O  H1   HW     0.518900        1.0080           0
       3 A    1    H3O  H2   HW     0.518900        1.0080           0
       4 A    1    H3O  H3   HW     0.518900        1.0080           0
       5 WT1  64   TIP3 OH2  OT    -0.834000       15.9994           0
       6 WT1  64   TIP3 H1   HT     0.417000        1.0080           0
       7 WT1  64   TIP3 H2   HT     0.417000        1.0080           0
       8 WT1  87   TIP3 OH2  OT    -0.834000       15.9994           0
       9 WT1  87   TIP3 H1   HT     0.417000        1.0080           0
      10 WT1  87   TIP3 H2   HT     0.417000        1.0080           0
      11 WT1  111  TIP3 OH2  OT    -0.834000       15.9994           0
      12 WT1  111  TIP3 H1   HT     0.417000        1.0080           0
      13 WT1  111  TIP3 H2   HT     0.417000        1.0080           0
      14 WT1  485  TIP3 OH2  OT    -0.834000       15.9994           0
      15 WT1  485  TIP3 H1   HT     0.417000        1.0080           0
      16 WT1  485  TIP3 H2   HT     0.417000        1.0080           0
      17 WT1  486  TIP3 OH2  OT    -0.834000       15.9994           0
      18 WT1  486  TIP3 H1   HT     0.417000        1.0080           0
      19 WT1  486  TIP3 H2   HT     0.417000        1.0080           0
      20 WT1  594  TIP3 OH2  OT    -0.834000       15.9994           0
      21 WT1  594  TIP3 H1   HT     0.417000        1.0080           0
      22 WT1  594  TIP3 H2   HT     0.417000        1.0080           0
      23 WT1  1032 TIP3 OH2  OT    -0.834000       15.9994           0
      24 WT1  1032 TIP3 H1   HT     0.417000        1.0080           0
      25 WT1  1032 TIP3 H2   HT     0.417000        1.0080           0
      26 WT1  1301 TIP3 OH2  OT    -0.834000       15.9994           0
      27 WT1  1301 TIP3 H1   HT     0.417000        1.0080           0
      28 WT1  1301 TIP3 H2   HT     0.417000        1.0080           0
      29 WT1  1328 TIP3 OH2  OT    -0.834000       15.9994           0
      30 WT1  1328 TIP3 H1   HT     0.417000        1.0080           0
      31 WT1  1328 TIP3 H2   HT     0.417000        1.0080           0
      32 WT1  1352 TIP3 OH2  OT    -0.834000       15.9994           0
      33 WT1  1352 TIP3 H1   HT     0.417000        1.0080           0
      34 WT1  1352 TIP3 H2   HT     0.417000        1.0080           0
      35 WT1  1387 TIP3 OH2  OT    -0.834000       15.9994           0
      36 WT1  1387 TIP3 H1   HT     0.417000        1.0080           0
      37 WT1  1387 TIP3 H2   HT     0.417000        1.0080           0
      38 WT1  1497 TIP3 OH2  OT    -0.834000       15.9994           0
      39 WT1  1497 TIP3 H1   HT     0.417000        1.0080           0
      40 WT1  1497 TIP3 H2   HT     0.417000        1.0080           0
      41 WT1  1789 TIP3 OH2  OT    -0.834000       15.9994           0
      42 WT1  1789 TIP3 H1   HT     0.417000        1.0080           0
      43 WT1  1789 TIP3 H2   HT     0.417000        1.0080           0
      44 WT1  2167 TIP3 OH2  OT    -0.834000       15.9994           0
      45 WT1  2167 TIP3 H1   HT     0.417000        1.0080           0
      46 WT1  2167 TIP3 H2   HT     0.417000        1.0080           0
      47 WT1  2607 TIP3 OH2  OT    -0.834000       15.9994           0
      48 WT1  2607 TIP3 H1   HT     0.417000        1.0080           0
      49 WT1  2607 TIP3 H2   HT     0.417000        1.0080           0
      50 WT1  2608 TIP3 OH2  OT    -0.834000       15.9994           0
      51 WT1  2608 TIP3 H1   HT     0.417000        1.0080           0
      52 WT1  2608 TIP3 H2   HT     0.417000        1.0080           0
      53 WT1  3010 TIP3 OH2  OT    -0.834000       15.9994           0
      54 WT1  3010 TIP3 H1   HT     0.417000        1.0080           0
      55 WT1  3010 TIP3 H2   HT     0.417000        1.0080           0
      56 WT1  3072 TIP3 OH2  OT    -0.834000       15.9994           0
      57 WT1  3072 TIP3 H1   HT     0.417000        1.0080           0
      58 WT1  3072 TIP3 H2   HT     0.417000        1.0080           0
      59 WT1  8780 TIP3 OH2  OT    -0.834000       15.9994           0
      60 WT1  8780 TIP3 H1   HT     0.417000        1.0080           0
      61 WT1  8780 TIP3 H2   HT     0.417000        1.0080           0
      62 WT1  8845 TIP3 OH2  OT    -0.834000       15.9994           0
      63 WT1  8845 TIP3 H1   HT     0.417000        1.0080           0
      64 WT1  8845 TIP3 H2   HT     0.417000        1.0080           0

      43 !NBOND: bonds
       1       2       1       3       1       4       5       6
       5       7       8       9       8      10      11      12
      11      13      14      15      14      16      17      18
      17      19      20      21      20      22      23      24
      23      25      26      27      26      28      29      30
      29      31      32      33      32      34      35      36
      35      37      38      39      38      40      41      42
      41      43      44      45      44      46      47      48
      47      49      50      51      50      52      53      54
      53      55      56      57      56      58      59      60
      59      61      62      63      62      64

      23 !NTHETA: angles
       2       1       3       3       1       4       4       1       2
       6       5       7       9       8      10      12      11      13
      15      14      16      18      17      19      21      20      22
      24      23      25      27      26      28      30      29      31
      33      32      34      36      35      37      39      38      40
      42      41      43      45      44      46      48      47      49
      51      50      52      54      53      55      57      56      58
      60      59      61      63      62      64

       0 !NPHI: dihedrals


       0 !NIMPHI: impropers


       0 !NDON: donors


       0 !NACC: acceptors


       0 !NNB

       0       0       0       0       0       0       0       0
       0       0       0       0       0       0       0       0
       0       0       0       0       0       0       0       0
       0       0       0       0       0       0       0       0
       0       0       0       0       0       0       0       0
       0       0       0       0       0       0       0       0
       0       0       0       0       0       0       0       0
       0       0       0       0       0       0       0       0

       1       0 !NGRP
       0       0       0

